HEADER
"PSFversion" "1.00"
"design" "(\"CMOSinverter_001\" \"CMOSinverter_Simulation\" \"schematic\" \"\")"
"simulator" "spectre"
"temperature" "27"
"host" ""
"date" "Jul 27 17:51:32 2024"
"title" ""
"analysisList" "()"
END
