HEADER
"PSFversion" "1.00"
"Time Stamp" "Jul 27 17:51:32 2024"
TYPE
"variable" STRUCT(
"value" FLOAT DOUBLE
) PROP( "key" "element" )
VALUE
"temp" "variable" ( 27 ) PROP( )
END
